; Source: https://github.com/srak-uf/gromacs_tutorial (6e2f68b33d2d5934b3bf5cf8d02d8eec28065dc7)
gen-vel                 = no
gen-seed                = -1
gen-temp                = 300
comm-mode               = Linear
nstcomm                 = 50
integrator              = md  ; steep | md | md-vv
dt                      = 0.002
nsteps                  = 100000000
pbc                     = xyz
coulombtype             = PME ; Cut-off | PME | P3M-AD
coulomb-modifier        = None
rcoulomb                = 1.2
vdwtype                 = Cut-off   ; Cut-off | PME | P3M-AD
vdw-modifier            = None
rvdw                    = 1.2
tcoupl                  = nose-hoover   ;  berendsen | nose-hoover | v-rescale
tc-grps                 = System
tau-t                   = 1.0
ref-t                   = 300
nsttcouple              = 10
nh-chain-length         = 10
pcoupl                  = Parrinello-Rahman  ; no | Berendsen | Parrinello-Rahman
pcoupltype              = anisotropic           ; isotropic | semiisotropic (x/y vs z) | anisotropic
tau-p                   = 5.0
compressibility         = 4.5e-5 4.5e-5 4.5e-5 0.0 0.0 0.0
ref-p                   = 1.0 1.0 1.0 0.0 0.0 0.0                ; [bar]
nstpcouple              = 10
refcoord-scaling        = no
constraints             = all-bonds           ; all-bonds | h-bonds
constraint-algorithm    = LINCS
nstxout                 = 1000
nstvout                 = 1000
nstenergy               = 1000
nstxout-compressed      = 0
compressed-x-grps       = 
nstlist                 = 10
ns-type                 = grid
cutoff-scheme           = Verlet
verlet-buffer-tolerance = 0.005         ; GROMACS default; grompp sets rlist from it
fourierspacing          = 0.12
pme-order               = 6
ewald-rtol              = 1e-8
DispCorr                = EnerPres
lincs-order             = 6
lincs-iter              = 2
continuation            = no
define                  = 
print-nose-hoover-chain-variables = yes

nstcalcenergy           = 10
nstlog                  = 1000
