gen-vel                 = no
gen-seed                = -1
gen-temp                = 300
comm-mode               = Linear
nstcomm                 = 50
integrator              = md  ; steep | md | md-vv
dt                      = 0.002
nsteps                  = 100000000
pbc                     = xyz
coulombtype             = PME ; Cut-off | PME | P3M-AD
coulomb-modifier        = None
rcoulomb                = 1.2
vdwtype                 = Cut-off   ; Cut-off | PME | P3M-AD
vdw-modifier            = None
rvdw                    = 1.2
tcoupl                  = nose-hoover   ;  berendsen | nose-hoover | v-rescale
tc-grps                 = System
tau-t                   = 1.0
ref-t                   = 300
nsttcouple              = 5
nh-chain-length         = 10
pcoupl                  = Parrinello-Rahman  ; no | Berendsen | Parrinello-Rahman
pcoupltype              = anisotropic           ; isotropic | semiisotropic (x/y vs z) | anisotropic
tau-p                   = 5.0
compressibility         = 4.5e-5 4.5e-5 4.5e-5 4.5e-5 4.5e-5 4.5e-5
ref-p                   = 1.0 1.0 1.0 0.0 0.0 0.0                ; [bar]
nstpcouple              = 5
refcoord-scaling        = no
constraints             = all-bonds           ; all-bonds | h-bonds
constraint-algorithm    = LINCS
nstxout                 = 1000
nstvout                 = 1000
nstenergy               = 1000
nstxout-compressed      = 0
compressed-x-grps       = 
nstlist                 = 5
ns-type                 = grid
cutoff-scheme           = Verlet
verlet-buffer-tolerance = -1
rlist                   = 1.4
fourierspacing          = 0.12
pme-order               = 6
ewald-rtol              = 1e-8
DispCorr                = no
lincs-order             = 6
lincs-iter              = 2
continuation            = no
define                  = 
print-nose-hoover-chain-variables = yes

nstcalcenergy           = 5
nstlog                  = 1000
